 TITLE="2D Triangle Contours"
 VARIABLES= "X", "Y", "V1" 
 ZONE N=       765   E=      1423   F=FEPOINT,  ET=TRIANGLE
  -0.35000000E+01  0.00000000E+00 -0.35000000E+01
  -0.33999999E+01  0.00000000E+00 -0.33999999E+01
  -0.33000000E+01  0.00000000E+00 -0.33000000E+01
  -0.32000000E+01  0.00000000E+00 -0.32000000E+01
  -0.30999999E+01  0.00000000E+00 -0.30999999E+01
  -0.30000000E+01  0.00000000E+00 -0.30000000E+01
  -0.28999999E+01  0.00000000E+00 -0.28999999E+01
  -0.28000000E+01  0.00000000E+00 -0.28000000E+01
  -0.26999998E+01  0.00000000E+00 -0.26999998E+01
  -0.25999999E+01  0.00000000E+00 -0.25999999E+01
  -0.25000000E+01  0.00000000E+00 -0.25000000E+01
  -0.23999999E+01  0.00000000E+00 -0.23999999E+01
  -0.22999997E+01  0.00000000E+00 -0.22999997E+01
  -0.21999998E+01  0.00000000E+00 -0.21999998E+01
  -0.20999997E+01  0.00000000E+00 -0.20999997E+01
  -0.19999996E+01  0.00000000E+00 -0.19999996E+01
  -0.18999996E+01  0.00000000E+00 -0.18999996E+01
  -0.17999996E+01  0.00000000E+00 -0.17999996E+01
  -0.16999996E+01  0.00000000E+00 -0.16999996E+01
  -0.15999995E+01  0.00000000E+00 -0.15999995E+01
  -0.14999995E+01  0.00000000E+00 -0.14999995E+01
  -0.13999995E+01  0.00000000E+00 -0.13999995E+01
  -0.12999995E+01  0.00000000E+00 -0.12999995E+01
  -0.11999995E+01  0.00000000E+00 -0.11999995E+01
  -0.10999994E+01  0.00000000E+00 -0.10999994E+01
  -0.10000000E+01  0.00000000E+00 -0.10000000E+01
  -0.99452186E+00  0.10452846E+00 -0.99452186E+00
  -0.97814757E+00  0.20791170E+00 -0.97814757E+00
  -0.95105648E+00  0.30901700E+00 -0.95105648E+00
  -0.91354543E+00  0.40673664E+00 -0.91354543E+00
  -0.86602539E+00  0.50000000E+00 -0.86602539E+00
  -0.80901694E+00  0.58778524E+00 -0.80901694E+00
  -0.74314481E+00  0.66913062E+00 -0.74314481E+00
  -0.66913056E+00  0.74314481E+00 -0.66913056E+00
  -0.58778524E+00  0.80901700E+00 -0.58778524E+00
  -0.49999997E+00  0.86602539E+00 -0.49999997E+00
  -0.40673664E+00  0.91354543E+00 -0.40673664E+00
  -0.30901697E+00  0.95105648E+00 -0.30901697E+00
  -0.20791166E+00  0.97814757E+00 -0.20791166E+00
  -0.10452842E+00  0.99452186E+00 -0.10452842E+00
   0.00000000E+00  0.10000000E+01  0.00000000E+00
   0.00000000E+00  0.11000000E+01  0.00000000E+00
   0.00000000E+00  0.12000000E+01  0.00000000E+00
   0.00000000E+00  0.13000001E+01  0.00000000E+00
   0.00000000E+00  0.14000001E+01  0.00000000E+00
   0.00000000E+00  0.15000001E+01  0.00000000E+00
   0.00000000E+00  0.16000001E+01  0.00000000E+00
   0.00000000E+00  0.17000000E+01  0.00000000E+00
   0.00000000E+00  0.18000002E+01  0.00000000E+00
   0.00000000E+00  0.19000002E+01  0.00000000E+00
   0.00000000E+00  0.20000000E+01  0.00000000E+00
  -0.10000001E+00  0.20000000E+01 -0.10000001E+00
  -0.20000002E+00  0.20000000E+01 -0.20000002E+00
  -0.30000001E+00  0.20000000E+01 -0.30000001E+00
  -0.40000001E+00  0.20000000E+01 -0.40000001E+00
  -0.50000000E+00  0.20000000E+01 -0.50000000E+00
  -0.60000002E+00  0.20000000E+01 -0.60000002E+00
  -0.69999999E+00  0.20000000E+01 -0.69999999E+00
  -0.80000001E+00  0.20000000E+01 -0.80000001E+00
  -0.90000004E+00  0.20000000E+01 -0.90000004E+00
  -0.10000000E+01  0.20000000E+01 -0.10000000E+01
  -0.11000000E+01  0.20000000E+01 -0.11000000E+01
  -0.12000000E+01  0.20000000E+01 -0.12000000E+01
  -0.13000001E+01  0.20000000E+01 -0.13000001E+01
  -0.14000000E+01  0.20000000E+01 -0.14000000E+01
  -0.15000000E+01  0.20000000E+01 -0.15000000E+01
  -0.15999999E+01  0.20000000E+01 -0.15999999E+01
  -0.16999999E+01  0.20000000E+01 -0.16999999E+01
  -0.17999998E+01  0.20000000E+01 -0.17999998E+01
  -0.18999999E+01  0.20000000E+01 -0.18999999E+01
  -0.19999999E+01  0.20000000E+01 -0.19999999E+01
  -0.20999999E+01  0.20000000E+01 -0.20999999E+01
  -0.21999998E+01  0.20000000E+01 -0.21999998E+01
  -0.22999997E+01  0.20000000E+01 -0.22999997E+01
  -0.23999996E+01  0.20000000E+01 -0.23999996E+01
  -0.24999998E+01  0.20000000E+01 -0.24999998E+01
  -0.25999997E+01  0.20000000E+01 -0.25999997E+01
  -0.26999998E+01  0.20000000E+01 -0.26999998E+01
  -0.27999997E+01  0.20000000E+01 -0.27999997E+01
  -0.28999996E+01  0.20000000E+01 -0.28999996E+01
  -0.29999998E+01  0.20000000E+01 -0.29999998E+01
  -0.30999999E+01  0.20000000E+01 -0.30999999E+01
  -0.31999998E+01  0.20000000E+01 -0.31999998E+01
  -0.33000000E+01  0.20000000E+01 -0.33000000E+01
  -0.33999999E+01  0.20000000E+01 -0.33999999E+01
  -0.35000000E+01  0.20000000E+01 -0.35000000E+01
  -0.35000000E+01  0.19000000E+01 -0.35000000E+01
  -0.35000000E+01  0.18000001E+01 -0.35000000E+01
  -0.34999998E+01  0.17000000E+01 -0.34999998E+01
  -0.34999998E+01  0.16000000E+01 -0.34999998E+01
  -0.34999998E+01  0.15000000E+01 -0.34999998E+01
  -0.34999998E+01  0.14000000E+01 -0.34999998E+01
  -0.34999998E+01  0.13000000E+01 -0.34999998E+01
  -0.34999998E+01  0.11999999E+01 -0.34999998E+01
  -0.35000000E+01  0.10999999E+01 -0.35000000E+01
  -0.34999998E+01  0.99999988E+00 -0.34999998E+01
  -0.34999995E+01  0.89999986E+00 -0.34999995E+01
  -0.34999995E+01  0.79999989E+00 -0.34999995E+01
  -0.34999995E+01  0.69999993E+00 -0.34999995E+01
  -0.34999995E+01  0.59999990E+00 -0.34999995E+01
  -0.34999998E+01  0.49999991E+00 -0.34999998E+01
  -0.35000000E+01  0.39999992E+00 -0.35000000E+01
  -0.34999998E+01  0.29999989E+00 -0.34999998E+01
  -0.35000000E+01  0.19999991E+00 -0.35000000E+01
  -0.35000000E+01  0.99999920E-01 -0.35000000E+01
  -0.50000004E-01  0.19500000E+01 -0.50000004E-01
  -0.34499998E+01  0.19500000E+01 -0.34499998E+01
  -0.34499998E+01  0.49999960E-01 -0.34499998E+01
  -0.10472606E+01  0.52264232E-01 -0.10472606E+01
  -0.52264210E-01  0.10472610E+01 -0.52264210E-01
  -0.34133976E+01  0.14999992E+00 -0.34133976E+01
  -0.33588560E+01  0.91143772E-01 -0.33588560E+01
  -0.34133976E+01  0.24999970E+00 -0.34133976E+01
  -0.34133976E+01  0.35000011E+00 -0.34133976E+01
  -0.34133976E+01  0.44999972E+00 -0.34133976E+01
  -0.34133971E+01  0.54999971E+00 -0.34133971E+01
  -0.34133971E+01  0.64999992E+00 -0.34133971E+01
  -0.34133971E+01  0.74999988E+00 -0.34133971E+01
  -0.34133971E+01  0.84999990E+00 -0.34133971E+01
  -0.34133971E+01  0.95000005E+00 -0.34133971E+01
  -0.34133976E+01  0.10500002E+01 -0.34133976E+01
  -0.34133976E+01  0.11499996E+01 -0.34133976E+01
  -0.34133973E+01  0.12500000E+01 -0.34133973E+01
  -0.34133973E+01  0.13499999E+01 -0.34133973E+01
  -0.34133973E+01  0.14500000E+01 -0.34133973E+01
  -0.34133973E+01  0.15500000E+01 -0.34133973E+01
  -0.34133973E+01  0.16500001E+01 -0.34133973E+01
  -0.34133976E+01  0.17500002E+01 -0.34133976E+01
  -0.34133973E+01  0.18500000E+01 -0.34133973E+01
  -0.33588560E+01  0.19088563E+01 -0.33588560E+01
  -0.32500000E+01  0.86602569E-01 -0.32500000E+01
  -0.33189411E+01  0.18283239E+00 -0.33189411E+01
  -0.31500001E+01  0.86602502E-01 -0.31500001E+01
  -0.30500000E+01  0.86602569E-01 -0.30500000E+01
  -0.29499998E+01  0.86602502E-01 -0.29499998E+01
  -0.28499999E+01  0.86602569E-01 -0.28499999E+01
  -0.27500000E+01  0.86602502E-01 -0.27500000E+01
  -0.26499999E+01  0.86602569E-01 -0.26499999E+01
  -0.25500000E+01  0.86602569E-01 -0.25500000E+01
  -0.24499998E+01  0.86602502E-01 -0.24499998E+01
  -0.23499999E+01  0.86602502E-01 -0.23499999E+01
  -0.22499998E+01  0.86602569E-01 -0.22499998E+01
  -0.21499996E+01  0.86602502E-01 -0.21499996E+01
  -0.20499997E+01  0.86602539E-01 -0.20499997E+01
  -0.19499996E+01  0.86602539E-01 -0.19499996E+01
  -0.18499997E+01  0.86602539E-01 -0.18499997E+01
  -0.17499995E+01  0.86602524E-01 -0.17499995E+01
  -0.16499996E+01  0.86602539E-01 -0.16499996E+01
  -0.15499995E+01  0.86602539E-01 -0.15499995E+01
  -0.14499996E+01  0.86602539E-01 -0.14499996E+01
  -0.13499994E+01  0.86602539E-01 -0.13499994E+01
  -0.12499995E+01  0.86602539E-01 -0.12499995E+01
  -0.11499994E+01  0.86602539E-01 -0.11499994E+01
  -0.10862511E+01  0.14434974E+00 -0.10862511E+01
  -0.32500000E+01  0.19133976E+01 -0.32500000E+01
  -0.33189406E+01  0.18171678E+01 -0.33189406E+01
  -0.31499999E+01  0.19133974E+01 -0.31499999E+01
  -0.30499997E+01  0.19133976E+01 -0.30499997E+01
  -0.29499998E+01  0.19133976E+01 -0.29499998E+01
  -0.28499997E+01  0.19133974E+01 -0.28499997E+01
  -0.27499998E+01  0.19133974E+01 -0.27499998E+01
  -0.26499996E+01  0.19133976E+01 -0.26499996E+01
  -0.25499997E+01  0.19133974E+01 -0.25499997E+01
  -0.24499998E+01  0.19133976E+01 -0.24499998E+01
  -0.23499997E+01  0.19133974E+01 -0.23499997E+01
  -0.22499998E+01  0.19133974E+01 -0.22499998E+01
  -0.21499999E+01  0.19133974E+01 -0.21499999E+01
  -0.20500000E+01  0.19133974E+01 -0.20500000E+01
  -0.19499998E+01  0.19133974E+01 -0.19499998E+01
  -0.18499999E+01  0.19133974E+01 -0.18499999E+01
  -0.17499999E+01  0.19133974E+01 -0.17499999E+01
  -0.16499999E+01  0.19133974E+01 -0.16499999E+01
  -0.15500000E+01  0.19133974E+01 -0.15500000E+01
  -0.14500000E+01  0.19133974E+01 -0.14500000E+01
  -0.13500000E+01  0.19133974E+01 -0.13500000E+01
  -0.12500000E+01  0.19133974E+01 -0.12500000E+01
  -0.11500001E+01  0.19133974E+01 -0.11500001E+01
  -0.10500000E+01  0.19133974E+01 -0.10500000E+01
  -0.95000005E+00  0.19133974E+01 -0.95000005E+00
  -0.85000002E+00  0.19133974E+01 -0.85000002E+00
  -0.75000000E+00  0.19133974E+01 -0.75000000E+00
  -0.64999998E+00  0.19133974E+01 -0.64999998E+00
  -0.55000001E+00  0.19133974E+01 -0.55000001E+00
  -0.44999999E+00  0.19133974E+01 -0.44999999E+00
  -0.35000002E+00  0.19133974E+01 -0.35000002E+00
  -0.25000000E+00  0.19133974E+01 -0.25000000E+00
  -0.15000001E+00  0.19133974E+01 -0.15000001E+00
  -0.91143683E-01  0.18588563E+01 -0.91143683E-01
  -0.86602502E-01  0.17500001E+01 -0.86602502E-01
  -0.18283202E+00  0.18189408E+01 -0.18283202E+00
  -0.86602569E-01  0.16500001E+01 -0.86602569E-01
  -0.86602539E-01  0.15500002E+01 -0.86602539E-01
  -0.86602539E-01  0.14500000E+01 -0.86602539E-01
  -0.86602539E-01  0.13500001E+01 -0.86602539E-01
  -0.86602539E-01  0.12500000E+01 -0.86602539E-01
  -0.86602539E-01  0.11500001E+01 -0.86602539E-01
  -0.14434990E+00  0.10862510E+01 -0.14434990E+00
  -0.33267949E+01  0.17000004E+01 -0.33267949E+01
  -0.32189474E+01  0.18183410E+01 -0.32189474E+01
  -0.33267949E+01  0.16000000E+01 -0.33267949E+01
  -0.32728710E+01  0.17591708E+01 -0.32728710E+01
  -0.33267946E+01  0.15000000E+01 -0.33267946E+01
  -0.33267949E+01  0.14000000E+01 -0.33267949E+01
  -0.33267946E+01  0.13000000E+01 -0.33267946E+01
  -0.33267949E+01  0.11999996E+01 -0.33267949E+01
  -0.33267949E+01  0.10999999E+01 -0.33267949E+01
  -0.33267949E+01  0.10000005E+01 -0.33267949E+01
  -0.33267946E+01  0.89999998E+00 -0.33267946E+01
  -0.33267946E+01  0.79999989E+00 -0.33267946E+01
  -0.33267946E+01  0.69999993E+00 -0.33267946E+01
  -0.33267946E+01  0.59999979E+00 -0.33267946E+01
  -0.33267949E+01  0.49999928E+00 -0.33267949E+01
  -0.33267949E+01  0.39999992E+00 -0.33267949E+01
  -0.33267951E+01  0.29999989E+00 -0.33267951E+01
  -0.32189479E+01  0.18165925E+00 -0.32189479E+01
  -0.32728715E+01  0.24082957E+00 -0.32728715E+01
  -0.30000001E+00  0.18267949E+01 -0.30000001E+00
  -0.18165903E+00  0.17189476E+01 -0.18165903E+00
  -0.40000001E+00  0.18267949E+01 -0.40000001E+00
  -0.24082953E+00  0.17728713E+01 -0.24082953E+00
  -0.50000000E+00  0.18267949E+01 -0.50000000E+00
  -0.60000002E+00  0.18267949E+01 -0.60000002E+00
  -0.69999999E+00  0.18267949E+01 -0.69999999E+00
  -0.80000001E+00  0.18267949E+01 -0.80000001E+00
  -0.90000004E+00  0.18267949E+01 -0.90000004E+00
  -0.10000000E+01  0.18267949E+01 -0.10000000E+01
  -0.11000000E+01  0.18267950E+01 -0.11000000E+01
  -0.12000000E+01  0.18267949E+01 -0.12000000E+01
  -0.13000000E+01  0.18267949E+01 -0.13000000E+01
  -0.14000001E+01  0.18267949E+01 -0.14000001E+01
  -0.15000000E+01  0.18267949E+01 -0.15000000E+01
  -0.15999999E+01  0.18267949E+01 -0.15999999E+01
  -0.16999998E+01  0.18267949E+01 -0.16999998E+01
  -0.18000000E+01  0.18267949E+01 -0.18000000E+01
  -0.18999999E+01  0.18267949E+01 -0.18999999E+01
  -0.19999999E+01  0.18267950E+01 -0.19999999E+01
  -0.20999999E+01  0.18267949E+01 -0.20999999E+01
  -0.21999998E+01  0.18267949E+01 -0.21999998E+01
  -0.22999997E+01  0.18267949E+01 -0.22999997E+01
  -0.23999996E+01  0.18267951E+01 -0.23999996E+01
  -0.24999998E+01  0.18267950E+01 -0.24999998E+01
  -0.25999997E+01  0.18267950E+01 -0.25999997E+01
  -0.26999998E+01  0.18267951E+01 -0.26999998E+01
  -0.27999997E+01  0.18267949E+01 -0.27999997E+01
  -0.28999996E+01  0.18267951E+01 -0.28999996E+01
  -0.29999998E+01  0.18267950E+01 -0.29999998E+01
  -0.30999999E+01  0.18267951E+01 -0.30999999E+01
  -0.17320512E+00  0.16000001E+01 -0.17320512E+00
  -0.17320505E+00  0.15000001E+01 -0.17320505E+00
  -0.17320511E+00  0.14000001E+01 -0.17320511E+00
  -0.17320505E+00  0.13000001E+01 -0.17320505E+00
  -0.17320511E+00  0.12000000E+01 -0.17320511E+00
  -0.24328306E+00  0.10716829E+01 -0.24328306E+00
  -0.30999999E+01  0.17320505E+00 -0.30999999E+01
  -0.30000000E+01  0.17320505E+00 -0.30000000E+01
  -0.28999999E+01  0.17320511E+00 -0.28999999E+01
  -0.28000000E+01  0.17320511E+00 -0.28000000E+01
  -0.26999998E+01  0.17320505E+00 -0.26999998E+01
  -0.25999999E+01  0.17320514E+00 -0.25999999E+01
  -0.25000000E+01  0.17320505E+00 -0.25000000E+01
  -0.23999999E+01  0.17320508E+00 -0.23999999E+01
  -0.22999997E+01  0.17320505E+00 -0.22999997E+01
  -0.21999998E+01  0.17320505E+00 -0.21999998E+01
  -0.20999997E+01  0.17320509E+00 -0.20999997E+01
  -0.19999996E+01  0.17320505E+00 -0.19999996E+01
  -0.18999996E+01  0.17320511E+00 -0.18999996E+01
  -0.17999996E+01  0.17320503E+00 -0.17999996E+01
  -0.16999996E+01  0.17320511E+00 -0.16999996E+01
  -0.15999995E+01  0.17320505E+00 -0.15999995E+01
  -0.14999995E+01  0.17320511E+00 -0.14999995E+01
  -0.13999995E+01  0.17320505E+00 -0.13999995E+01
  -0.12999995E+01  0.17320511E+00 -0.12999995E+01
  -0.11999995E+01  0.17320505E+00 -0.11999995E+01
  -0.10716830E+01  0.24328288E+00 -0.10716830E+01
  -0.25751087E+00  0.16537825E+01 -0.25751087E+00
  -0.33214092E+00  0.17321008E+01 -0.33214092E+00
  -0.25980762E+00  0.15500001E+01 -0.25980762E+00
  -0.25980762E+00  0.14500000E+01 -0.25980762E+00
  -0.25980762E+00  0.13500001E+01 -0.25980762E+00
  -0.25980762E+00  0.12500000E+01 -0.25980762E+00
  -0.25154534E+00  0.11608415E+01 -0.25154534E+00
  -0.33996749E+00  0.10461463E+01 -0.33996749E+00
  -0.44999999E+00  0.17401923E+01 -0.44999999E+00
  -0.35571569E+00  0.16349194E+01 -0.35571569E+00
  -0.55000001E+00  0.17401923E+01 -0.55000001E+00
  -0.64999998E+00  0.17401923E+01 -0.64999998E+00
  -0.75000000E+00  0.17401923E+01 -0.75000000E+00
  -0.85000002E+00  0.17401923E+01 -0.85000002E+00
  -0.95000005E+00  0.17401923E+01 -0.95000005E+00
  -0.10500001E+01  0.17401923E+01 -0.10500001E+01
  -0.11500000E+01  0.17401923E+01 -0.11500000E+01
  -0.12500000E+01  0.17401923E+01 -0.12500000E+01
  -0.13500000E+01  0.17401924E+01 -0.13500000E+01
  -0.14500000E+01  0.17401923E+01 -0.14500000E+01
  -0.15500000E+01  0.17401923E+01 -0.15500000E+01
  -0.16499999E+01  0.17401923E+01 -0.16499999E+01
  -0.17499999E+01  0.17401924E+01 -0.17499999E+01
  -0.18499999E+01  0.17401923E+01 -0.18499999E+01
  -0.19499999E+01  0.17401923E+01 -0.19499999E+01
  -0.20500000E+01  0.17401923E+01 -0.20500000E+01
  -0.21499999E+01  0.17401923E+01 -0.21499999E+01
  -0.22499998E+01  0.17401923E+01 -0.22499998E+01
  -0.23499999E+01  0.17401924E+01 -0.23499999E+01
  -0.24499998E+01  0.17401927E+01 -0.24499998E+01
  -0.25499997E+01  0.17401924E+01 -0.25499997E+01
  -0.26499996E+01  0.17401927E+01 -0.26499996E+01
  -0.27499995E+01  0.17401924E+01 -0.27499995E+01
  -0.28499999E+01  0.17401924E+01 -0.28499999E+01
  -0.29499998E+01  0.17401927E+01 -0.29499998E+01
  -0.30499997E+01  0.17401927E+01 -0.30499997E+01
  -0.31537821E+01  0.17424893E+01 -0.31537821E+01
  -0.32321007E+01  0.16678593E+01 -0.32321007E+01
  -0.32401922E+01  0.15500002E+01 -0.32401922E+01
  -0.31349194E+01  0.16442845E+01 -0.31349194E+01
  -0.32401922E+01  0.14499998E+01 -0.32401922E+01
  -0.32401922E+01  0.13500001E+01 -0.32401922E+01
  -0.32401922E+01  0.12499995E+01 -0.32401922E+01
  -0.32401922E+01  0.11499997E+01 -0.32401922E+01
  -0.32401922E+01  0.10500002E+01 -0.32401922E+01
  -0.32401922E+01  0.95000041E+00 -0.32401922E+01
  -0.32401922E+01  0.84999990E+00 -0.32401922E+01
  -0.32401922E+01  0.74999988E+00 -0.32401922E+01
  -0.32401922E+01  0.64999986E+00 -0.32401922E+01
  -0.32401922E+01  0.54999936E+00 -0.32401922E+01
  -0.32401922E+01  0.44999960E+00 -0.32401922E+01
  -0.32401927E+01  0.34999970E+00 -0.32401927E+01
  -0.31781776E+01  0.27297068E+00 -0.31781776E+01
  -0.30500000E+01  0.25980762E+00 -0.30500000E+01
  -0.31414800E+01  0.36599371E+00 -0.31414800E+01
  -0.29499998E+01  0.25980759E+00 -0.29499998E+01
  -0.28499999E+01  0.25980768E+00 -0.28499999E+01
  -0.27500000E+01  0.25980759E+00 -0.27500000E+01
  -0.26499999E+01  0.25980765E+00 -0.26499999E+01
  -0.25500000E+01  0.25980765E+00 -0.25500000E+01
  -0.24499998E+01  0.25980756E+00 -0.24499998E+01
  -0.23499999E+01  0.25980756E+00 -0.23499999E+01
  -0.22499998E+01  0.25980762E+00 -0.22499998E+01
  -0.21499996E+01  0.25980759E+00 -0.21499996E+01
  -0.20499997E+01  0.25980762E+00 -0.20499997E+01
  -0.19499996E+01  0.25980762E+00 -0.19499996E+01
  -0.18499995E+01  0.25980762E+00 -0.18499995E+01
  -0.17499996E+01  0.25980762E+00 -0.17499996E+01
  -0.16499996E+01  0.25980762E+00 -0.16499996E+01
  -0.15499995E+01  0.25980762E+00 -0.15499995E+01
  -0.14499996E+01  0.25980762E+00 -0.14499996E+01
  -0.13499994E+01  0.25980762E+00 -0.13499994E+01
  -0.12499995E+01  0.25980762E+00 -0.12499995E+01
  -0.11608412E+01  0.25154525E+00 -0.11608412E+01
  -0.10461463E+01  0.33996728E+00 -0.10461463E+01
  -0.31535895E+01  0.49999946E+00 -0.31535895E+01
  -0.30416934E+01  0.35946202E+00 -0.30416934E+01
  -0.31535897E+01  0.59999961E+00 -0.31535897E+01
  -0.30738490E+01  0.43965524E+00 -0.30738490E+01
  -0.29416935E+01  0.35946202E+00 -0.29416935E+01
  -0.31535897E+01  0.69999987E+00 -0.31535897E+01
  -0.31535897E+01  0.79999989E+00 -0.31535897E+01
  -0.31535897E+01  0.90000015E+00 -0.31535897E+01
  -0.31535895E+01  0.10000002E+01 -0.31535895E+01
  -0.31535895E+01  0.10999999E+01 -0.31535895E+01
  -0.31535895E+01  0.11999996E+01 -0.31535895E+01
  -0.31535897E+01  0.12999998E+01 -0.31535897E+01
  -0.31535895E+01  0.14000000E+01 -0.31535895E+01
  -0.31535897E+01  0.15000000E+01 -0.31535897E+01
  -0.30349631E+01  0.16413296E+01 -0.30349631E+01
  -0.30762045E+01  0.15633366E+01 -0.30762045E+01
  -0.29349632E+01  0.16413295E+01 -0.29349632E+01
  -0.30669873E+01  0.54999971E+00 -0.30669873E+01
  -0.29740624E+01  0.43312377E+00 -0.29740624E+01
  -0.28416936E+01  0.35946211E+00 -0.28416936E+01
  -0.30669873E+01  0.64999974E+00 -0.30669873E+01
  -0.30669873E+01  0.74999988E+00 -0.30669873E+01
  -0.30669873E+01  0.85000002E+00 -0.30669873E+01
  -0.30669873E+01  0.94999999E+00 -0.30669873E+01
  -0.30669868E+01  0.10500001E+01 -0.30669868E+01
  -0.30669868E+01  0.11499997E+01 -0.30669868E+01
  -0.30669873E+01  0.12500000E+01 -0.30669873E+01
  -0.30669873E+01  0.13499997E+01 -0.30669873E+01
  -0.30669873E+01  0.14500003E+01 -0.30669873E+01
  -0.29762483E+01  0.15603818E+01 -0.29762483E+01
  -0.28349633E+01  0.16413294E+01 -0.28349633E+01
  -0.28740625E+01  0.43312365E+00 -0.28740625E+01
  -0.29684489E+01  0.53296608E+00 -0.29684489E+01
  -0.29803848E+01  0.59999973E+00 -0.29803848E+01
  -0.27416937E+01  0.35946202E+00 -0.27416937E+01
  -0.29803848E+01  0.69999981E+00 -0.29803848E+01
  -0.29803848E+01  0.79999995E+00 -0.29803848E+01
  -0.29803848E+01  0.89999998E+00 -0.29803848E+01
  -0.29803846E+01  0.99999958E+00 -0.29803846E+01
  -0.29803841E+01  0.10999999E+01 -0.29803841E+01
  -0.29803846E+01  0.12000002E+01 -0.29803846E+01
  -0.29803846E+01  0.12999998E+01 -0.29803846E+01
  -0.29803848E+01  0.14000000E+01 -0.29803848E+01
  -0.29783165E+01  0.14801909E+01 -0.29783165E+01
  -0.28762484E+01  0.15603817E+01 -0.28762484E+01
  -0.27349634E+01  0.16413293E+01 -0.27349634E+01
  -0.28877771E+01  0.14377335E+01 -0.28877771E+01
  -0.27762485E+01  0.15603817E+01 -0.27762485E+01
  -0.28937824E+01  0.13500001E+01 -0.28937824E+01
  -0.28035796E+01  0.14916849E+01 -0.28035796E+01
  -0.26349635E+01  0.16413295E+01 -0.26349635E+01
  -0.26762486E+01  0.15603814E+01 -0.26762486E+01
  -0.25349636E+01  0.16413293E+01 -0.25349636E+01
  -0.28937819E+01  0.12500000E+01 -0.28937819E+01
  -0.28937819E+01  0.11500005E+01 -0.28937819E+01
  -0.28937819E+01  0.10499994E+01 -0.28937819E+01
  -0.28937821E+01  0.94999963E+00 -0.28937821E+01
  -0.28937824E+01  0.84999996E+00 -0.28937824E+01
  -0.28937824E+01  0.74999988E+00 -0.28937824E+01
  -0.28937824E+01  0.64999974E+00 -0.28937824E+01
  -0.28011746E+01  0.13877333E+01 -0.28011746E+01
  -0.28071797E+01  0.13000004E+01 -0.28071797E+01
  -0.28071792E+01  0.12000003E+01 -0.28071792E+01
  -0.28071797E+01  0.10999999E+01 -0.28071797E+01
  -0.28071795E+01  0.99999934E+00 -0.28071795E+01
  -0.28071795E+01  0.89999962E+00 -0.28071795E+01
  -0.28071799E+01  0.79999995E+00 -0.28071799E+01
  -0.27169771E+01  0.14416850E+01 -0.27169771E+01
  -0.25762486E+01  0.15603817E+01 -0.25762486E+01
  -0.24349637E+01  0.16413295E+01 -0.24349637E+01
  -0.27145720E+01  0.13377336E+01 -0.27145720E+01
  -0.26229622E+01  0.14757613E+01 -0.26229622E+01
  -0.27205770E+01  0.12500007E+01 -0.27205770E+01
  -0.26303744E+01  0.13916851E+01 -0.26303744E+01
  -0.24762487E+01  0.15603814E+01 -0.24762487E+01
  -0.25229623E+01  0.14757615E+01 -0.25229623E+01
  -0.23349638E+01  0.16413293E+01 -0.23349638E+01
  -0.23762488E+01  0.15603817E+01 -0.23762488E+01
  -0.22349639E+01  0.16413292E+01 -0.22349639E+01
  -0.27205770E+01  0.11499997E+01 -0.27205770E+01
  -0.27205770E+01  0.10499998E+01 -0.27205770E+01
  -0.27205768E+01  0.94999945E+00 -0.27205768E+01
  -0.26279693E+01  0.12877339E+01 -0.26279693E+01
  -0.26339748E+01  0.12000003E+01 -0.26339748E+01
  -0.26339743E+01  0.10999998E+01 -0.26339743E+01
  -0.28684487E+01  0.53296596E+00 -0.28684487E+01
  -0.27740626E+01  0.43312371E+00 -0.27740626E+01
  -0.28071799E+01  0.69999981E+00 -0.28071799E+01
  -0.28028328E+01  0.60842830E+00 -0.28028328E+01
  -0.26416938E+01  0.35946208E+00 -0.26416938E+01
  -0.27684488E+01  0.53296602E+00 -0.27684488E+01
  -0.26740627E+01  0.43312365E+00 -0.26740627E+01
  -0.25416939E+01  0.35946211E+00 -0.25416939E+01
  -0.27205770E+01  0.84999937E+00 -0.27205770E+01
  -0.27205775E+01  0.74999988E+00 -0.27205775E+01
  -0.27162304E+01  0.65842843E+00 -0.27162304E+01
  -0.26339743E+01  0.99999982E+00 -0.26339743E+01
  -0.26339743E+01  0.89999920E+00 -0.26339743E+01
  -0.26339746E+01  0.79999918E+00 -0.26339746E+01
  -0.20999999E+01  0.16535897E+01 -0.20999999E+01
  -0.20000000E+01  0.16535897E+01 -0.20000000E+01
  -0.18999999E+01  0.16535897E+01 -0.18999999E+01
  -0.17999998E+01  0.16535898E+01 -0.17999998E+01
  -0.16999999E+01  0.16535898E+01 -0.16999999E+01
  -0.15999999E+01  0.16535897E+01 -0.15999999E+01
  -0.15000000E+01  0.16535897E+01 -0.15000000E+01
  -0.14000000E+01  0.16535898E+01 -0.14000000E+01
  -0.13000001E+01  0.16535898E+01 -0.13000001E+01
  -0.12000000E+01  0.16535897E+01 -0.12000000E+01
  -0.11000000E+01  0.16535897E+01 -0.11000000E+01
  -0.10000000E+01  0.16535897E+01 -0.10000000E+01
  -0.90000004E+00  0.16535897E+01 -0.90000004E+00
  -0.80000001E+00  0.16535897E+01 -0.80000001E+00
  -0.69999999E+00  0.16535897E+01 -0.69999999E+00
  -0.60000002E+00  0.16535897E+01 -0.60000002E+00
  -0.50000000E+00  0.16535897E+01 -0.50000000E+00
  -0.35867059E+00  0.15349630E+01 -0.35867059E+00
  -0.43666351E+00  0.15762044E+01 -0.43666351E+00
  -0.35867056E+00  0.14349630E+01 -0.35867056E+00
  -0.22849638E+01  0.15547267E+01 -0.22849638E+01
  -0.24262486E+01  0.14737790E+01 -0.24262486E+01
  -0.25315907E+01  0.13761345E+01 -0.25315907E+01
  -0.21608284E+01  0.15742179E+01 -0.21608284E+01
  -0.20500000E+01  0.15669872E+01 -0.20500000E+01
  -0.19499999E+01  0.15669873E+01 -0.19499999E+01
  -0.18499998E+01  0.15669872E+01 -0.18499998E+01
  -0.17499999E+01  0.15669873E+01 -0.17499999E+01
  -0.16500000E+01  0.15669872E+01 -0.16500000E+01
  -0.15500000E+01  0.15669872E+01 -0.15500000E+01
  -0.14499999E+01  0.15669872E+01 -0.14499999E+01
  -0.13500000E+01  0.15669873E+01 -0.13500000E+01
  -0.12500001E+01  0.15669872E+01 -0.12500001E+01
  -0.11500001E+01  0.15669872E+01 -0.11500001E+01
  -0.10500000E+01  0.15669872E+01 -0.10500000E+01
  -0.95000005E+00  0.15669872E+01 -0.95000005E+00
  -0.85000002E+00  0.15669872E+01 -0.85000002E+00
  -0.75000000E+00  0.15669872E+01 -0.75000000E+00
  -0.64999998E+00  0.15669872E+01 -0.64999998E+00
  -0.55000001E+00  0.15669872E+01 -0.55000001E+00
  -0.43961847E+00  0.14762480E+01 -0.43961847E+00
  -0.35867056E+00  0.13349630E+01 -0.35867056E+00
  -0.34471324E+00  0.11971698E+01 -0.34471324E+00
  -0.34234035E+00  0.11216581E+01 -0.34234035E+00
  -0.43319863E+00  0.10099807E+01 -0.43319863E+00
  -0.49205339E+00  0.96570915E+00 -0.49205339E+00
  -0.44527310E+00  0.13849630E+01 -0.44527310E+00
  -0.53924102E+00  0.14675677E+01 -0.53924102E+00
  -0.42346725E+00  0.12587961E+01 -0.42346725E+00
  -0.43607208E+00  0.11565058E+01 -0.43607208E+00
  -0.51006973E+00  0.13087962E+01 -0.51006973E+00
  -0.52465534E+00  0.13881819E+01 -0.52465534E+00
  -0.63924098E+00  0.14675677E+01 -0.63924098E+00
  -0.51482612E+00  0.12181320E+01 -0.51482612E+00
  -0.50267029E+00  0.10819091E+01 -0.50267029E+00
  -0.60735106E+00  0.13319554E+01 -0.60735106E+00
  -0.73924100E+00  0.14675677E+01 -0.73924100E+00
  -0.23361051E+01  0.14687932E+01 -0.23361051E+01
  -0.22108283E+01  0.14876153E+01 -0.22108283E+01
  -0.21108284E+01  0.14876153E+01 -0.21108284E+01
  -0.19999999E+01  0.14803847E+01 -0.19999999E+01
  -0.19000000E+01  0.14803848E+01 -0.19000000E+01
  -0.17999997E+01  0.14803847E+01 -0.17999997E+01
  -0.17000000E+01  0.14803847E+01 -0.17000000E+01
  -0.15999999E+01  0.14803846E+01 -0.15999999E+01
  -0.15000000E+01  0.14803846E+01 -0.15000000E+01
  -0.13999999E+01  0.14803847E+01 -0.13999999E+01
  -0.13000002E+01  0.14803847E+01 -0.13000002E+01
  -0.12000000E+01  0.14803846E+01 -0.12000000E+01
  -0.11000000E+01  0.14803847E+01 -0.11000000E+01
  -0.10000000E+01  0.14803846E+01 -0.10000000E+01
  -0.90000004E+00  0.14803846E+01 -0.90000004E+00
  -0.81962049E+00  0.14739761E+01 -0.81962049E+00
  -0.68924099E+00  0.13809651E+01 -0.68924099E+00
  -0.58235538E+00  0.92274922E+00 -0.58235538E+00
  -0.57824206E+00  0.10164193E+01 -0.57824206E+00
  -0.58142436E+00  0.11435354E+01 -0.58142436E+00
  -0.61383647E+00  0.12321659E+01 -0.61383647E+00
  -0.78670371E+00  0.13795490E+01 -0.78670371E+00
  -0.69342607E+00  0.12810528E+01 -0.69342607E+00
  -0.86708319E+00  0.13859575E+01 -0.86708319E+00
  -0.95000005E+00  0.13937820E+01 -0.95000005E+00
  -0.10500001E+01  0.13937820E+01 -0.10500001E+01
  -0.11500000E+01  0.13937820E+01 -0.11500000E+01
  -0.12500002E+01  0.13937821E+01 -0.12500002E+01
  -0.13500000E+01  0.13937820E+01 -0.13500000E+01
  -0.14499998E+01  0.13937821E+01 -0.14499998E+01
  -0.15500000E+01  0.13937820E+01 -0.15500000E+01
  -0.16500001E+01  0.13937821E+01 -0.16500001E+01
  -0.17499999E+01  0.13937820E+01 -0.17499999E+01
  -0.18500000E+01  0.13937824E+01 -0.18500000E+01
  -0.68043470E+00  0.11575693E+01 -0.68043470E+00
  -0.65699613E+00  0.10780455E+01 -0.65699613E+00
  -0.79341787E+00  0.12797747E+01 -0.79341787E+00
  -0.76489502E+00  0.12111086E+01 -0.76489502E+00
  -0.89295715E+00  0.12893628E+01 -0.89295715E+00
  -0.10000000E+01  0.13071795E+01 -0.10000000E+01
  -0.11000000E+01  0.13071795E+01 -0.11000000E+01
  -0.12000002E+01  0.13071797E+01 -0.12000002E+01
  -0.13000001E+01  0.13071796E+01 -0.13000001E+01
  -0.14000000E+01  0.13071796E+01 -0.14000000E+01
  -0.14999998E+01  0.13071797E+01 -0.14999998E+01
  -0.16000001E+01  0.13071797E+01 -0.16000001E+01
  -0.16999999E+01  0.13071796E+01 -0.16999999E+01
  -0.85149109E+00  0.11983652E+01 -0.85149109E+00
  -0.76903123E+00  0.11111941E+01 -0.76903123E+00
  -0.67098898E+00  0.97902930E+00 -0.67098898E+00
  -0.66718918E+00  0.86980367E+00 -0.66718918E+00
  -0.74974304E+00  0.10406555E+01 -0.74974304E+00
  -0.96027029E+00  0.12154105E+01 -0.96027029E+00
  -0.10500000E+01  0.12205769E+01 -0.10500000E+01
  -0.86838013E+00  0.10998018E+01 -0.86838013E+00
  -0.11500003E+01  0.12205771E+01 -0.11500003E+01
  -0.12500000E+01  0.12205771E+01 -0.12500000E+01
  -0.13500000E+01  0.12205770E+01 -0.13500000E+01
  -0.14499999E+01  0.12205771E+01 -0.14499999E+01
  -0.15500000E+01  0.12205772E+01 -0.15500000E+01
  -0.19499998E+01  0.13937823E+01 -0.19499998E+01
  -0.20608284E+01  0.14010128E+01 -0.20608284E+01
  -0.21608284E+01  0.14010128E+01 -0.21608284E+01
  -0.18000003E+01  0.13071797E+01 -0.18000003E+01
  -0.16500000E+01  0.12205771E+01 -0.16500000E+01
  -0.22619696E+01  0.14016818E+01 -0.22619696E+01
  -0.23861048E+01  0.13821903E+01 -0.23861048E+01
  -0.25286393E+01  0.12761781E+01 -0.25286393E+01
  -0.24573722E+01  0.13291843E+01 -0.24573722E+01
  -0.18999997E+01  0.13071798E+01 -0.18999997E+01
  -0.20108280E+01  0.13144103E+01 -0.20108280E+01
  -0.17500002E+01  0.12205772E+01 -0.17500002E+01
  -0.21108284E+01  0.13144102E+01 -0.21108284E+01
  -0.22119696E+01  0.13150792E+01 -0.22119696E+01
  -0.23119693E+01  0.13150791E+01 -0.23119693E+01
  -0.18500001E+01  0.12205770E+01 -0.18500001E+01
  -0.19608279E+01  0.12278078E+01 -0.19608279E+01
  -0.20608282E+01  0.12278078E+01 -0.20608282E+01
  -0.21619694E+01  0.12284766E+01 -0.21619694E+01
  -0.22619696E+01  0.12284765E+01 -0.22619696E+01